# LAMMPS data file

12 atoms
10 bonds
0 angles
0 dihedrals
0 impropers

3 atom types
1 bond types
0 angle types
0 dihedral types
0 improper types

-1 2 xlo xhi
-1 2 ylo yhi
-13 5 zlo zhi

Masses

1 1
2 1
3 1

Atoms

1 1 0.87645 0.14194 -12.04198 9 1
2 2 0.87645 0.14194 -11.04198 0 1
3 2 0.87645 0.14194 -10.04198 0 1
4 2 0.87645 0.14194 -9.04198 0 1
5 2 0.87645 0.14194 -8.04198 0 1
6 2 0.87645 0.14194 -7.04198 0 1
7 2 0.87645 0.14194 -6.04198 0 1
8 2 0.87645 0.14194 -5.04198 0 1
9 2 0.87645 0.14194 -4.04198 0 1
10 2 0.87645 0.14194 -3.04198 0 1
11 2 0.87645 0.14194 -2.04198 0 1
12 3 0.87645 0.14194 -1.04198 -9 1

Velocities

1 0.0 0.0 0.0
2 0.0 0.0 0.0
3 0.0 0.0 0.0
4 0.0 0.0 0.0
5 0.0 0.0 0.0
6 0.0 0.0 0.0
7 0.0 0.0 0.0
8 0.0 0.0 0.0
9 0.0 0.0 0.0
10 0.0 0.0 0.0
11 0.0 0.0 0.0
12 0.0 0.0 0.0

Bonds

1 1 1 2
2 1 2 3
3 1 3 4
4 1 4 5
5 1 5 6
6 1 6 7
7 1 7 8
8 1 8 9
9 1 9 10
10 1 10 11

