# LAMMPS data file

12 atoms
10 bonds
0 angles
0 dihedrals
0 impropers

3 atom types
1 bond types
0 angle types
0 dihedral types
0 improper types

-1 2 xlo xhi
-1 2 ylo yhi
-13 5 zlo zhi

Masses

1 1
2 1
3 1

Atoms

1 1 0.04016 3.72865 -12.24864 9 1
2 2 0.04016 3.58181 -11.32159 0 1
3 2 0.04016 3.1557 -10.48528 0 1
4 2 0.04016 2.492 -9.82159 0 1
5 2 0.04016 1.6557 -9.39547 0 1
6 2 0.04016 0.72865 -9.24864 0 1
7 2 0.04016 -0.19841 -9.39547 0 1
8 2 0.04016 -1.03471 -9.82159 0 1
9 2 0.04016 -1.69841 -10.48528 0 1
10 2 0.04016 -2.12452 -11.32159 0 1
11 2 0.04016 -2.27135 -12.24864 0 1
12 3 0.26442 0.46496 -11.41752 -9 1
