# LAMMPS data file

92 atoms
90 bonds
0 angles
0 dihedrals
0 impropers

3 atom types
1 bond types
0 angle types
0 dihedral types
0 improper types

-1 2 xlo xhi
-9 2 ylo yhi
-13 5 zlo zhi

Masses

1 1
2 1
3 1

Atoms

1 1 0.34368 -8.10486 -12.02536 9 1
2 2 0.34368 -8.10486 -11.02536 0 1
3 2 0.34368 -8.10486 -10.02536 0 1
4 2 0.34368 -8.10486 -9.02536 0 1
5 2 0.34368 -8.10486 -8.02536 0 1
6 2 0.34368 -8.10486 -7.02536 0 1
7 2 0.34368 -8.10486 -6.02536 0 1
8 2 0.34368 -8.10486 -5.02536 0 1
9 2 0.34368 -8.10486 -4.02536 0 1
10 2 0.34368 -8.10486 -3.02536 0 1
11 2 0.34368 -8.10486 -2.02536 0 1
12 3 0.34368 -8.10486 -1.02536 -9 1
13 2 0.34368 -7.10486 -11.02536 0 1
14 2 0.34368 -6.10486 -11.02536 0 1
15 2 0.34368 -5.10486 -11.02536 0 1
16 2 0.34368 -4.10486 -11.02536 0 1
17 2 0.34368 -3.10486 -11.02536 0 1
18 2 0.34368 -2.10486 -11.02536 0 1
19 2 0.34368 -1.10486 -11.02536 0 1
20 2 0.34368 -0.10486 -11.02536 0 1
21 2 0.34368 -7.10486 -10.02536 0 1
22 2 0.34368 -6.10486 -10.02536 0 1
23 2 0.34368 -5.10486 -10.02536 0 1
24 2 0.34368 -4.10486 -10.02536 0 1
25 2 0.34368 -3.10486 -10.02536 0 1
26 2 0.34368 -2.10486 -10.02536 0 1
27 2 0.34368 -1.10486 -10.02536 0 1
28 2 0.34368 -0.10486 -10.02536 0 1
29 2 0.34368 -7.10486 -9.02536 0 1
30 2 0.34368 -6.10486 -9.02536 0 1
31 2 0.34368 -5.10486 -9.02536 0 1
32 2 0.34368 -4.10486 -9.02536 0 1
33 2 0.34368 -3.10486 -9.02536 0 1
34 2 0.34368 -2.10486 -9.02536 0 1
35 2 0.34368 -1.10486 -9.02536 0 1
36 2 0.34368 -0.10486 -9.02536 0 1
37 2 0.34368 -7.10486 -8.02536 0 1
38 2 0.34368 -6.10486 -8.02536 0 1
39 2 0.34368 -5.10486 -8.02536 0 1
40 2 0.34368 -4.10486 -8.02536 0 1
41 2 0.34368 -3.10486 -8.02536 0 1
42 2 0.34368 -2.10486 -8.02536 0 1
43 2 0.34368 -1.10486 -8.02536 0 1
44 2 0.34368 -0.10486 -8.02536 0 1
45 2 0.34368 -7.10486 -7.02536 0 1
46 2 0.34368 -6.10486 -7.02536 0 1
47 2 0.34368 -5.10486 -7.02536 0 1
48 2 0.34368 -4.10486 -7.02536 0 1
49 2 0.34368 -3.10486 -7.02536 0 1
50 2 0.34368 -2.10486 -7.02536 0 1
51 2 0.34368 -1.10486 -7.02536 0 1
52 2 0.34368 -0.10486 -7.02536 0 1
53 2 0.34368 -7.10486 -6.02536 0 1
54 2 0.34368 -6.10486 -6.02536 0 1
55 2 0.34368 -5.10486 -6.02536 0 1
56 2 0.34368 -4.10486 -6.02536 0 1
57 2 0.34368 -3.10486 -6.02536 0 1
58 2 0.34368 -2.10486 -6.02536 0 1
59 2 0.34368 -1.10486 -6.02536 0 1
60 2 0.34368 -0.10486 -6.02536 0 1
61 2 0.34368 -7.10486 -5.02536 0 1
62 2 0.34368 -6.10486 -5.02536 0 1
63 2 0.34368 -5.10486 -5.02536 0 1
64 2 0.34368 -4.10486 -5.02536 0 1
65 2 0.34368 -3.10486 -5.02536 0 1
66 2 0.34368 -2.10486 -5.02536 0 1
67 2 0.34368 -1.10486 -5.02536 0 1
68 2 0.34368 -0.10486 -5.02536 0 1
69 2 0.34368 -7.10486 -4.02536 0 1
70 2 0.34368 -6.10486 -4.02536 0 1
71 2 0.34368 -5.10486 -4.02536 0 1
72 2 0.34368 -4.10486 -4.02536 0 1
73 2 0.34368 -3.10486 -4.02536 0 1
74 2 0.34368 -2.10486 -4.02536 0 1
75 2 0.34368 -1.10486 -4.02536 0 1
76 2 0.34368 -0.10486 -4.02536 0 1
77 2 0.34368 -7.10486 -3.02536 0 1
78 2 0.34368 -6.10486 -3.02536 0 1
79 2 0.34368 -5.10486 -3.02536 0 1
80 2 0.34368 -4.10486 -3.02536 0 1
81 2 0.34368 -3.10486 -3.02536 0 1
82 2 0.34368 -2.10486 -3.02536 0 1
83 2 0.34368 -1.10486 -3.02536 0 1
84 2 0.34368 -0.10486 -3.02536 0 1
85 2 0.34368 -7.10486 -2.02536 0 1
86 2 0.34368 -6.10486 -2.02536 0 1
87 2 0.34368 -5.10486 -2.02536 0 1
88 2 0.34368 -4.10486 -2.02536 0 1
89 2 0.34368 -3.10486 -2.02536 0 1
90 2 0.34368 -2.10486 -2.02536 0 1
91 2 0.34368 -1.10486 -2.02536 0 1
92 2 0.34368 -0.10486 -2.02536 0 1


Velocities

1 0.0 0.0 0.0
2 0.0 0.0 0.0
3 0.0 0.0 0.0
4 0.0 0.0 0.0
5 0.0 0.0 0.0
6 0.0 0.0 0.0
7 0.0 0.0 0.0
8 0.0 0.0 0.0
9 0.0 0.0 0.0
10 0.0 0.0 0.0
11 0.0 0.0 0.0
12 0.0 0.0 0.0
13 0.0 0.0 0.0
14 0.0 0.0 0.0
15 0.0 0.0 0.0
16 0.0 0.0 0.0
17 0.0 0.0 0.0
18 0.0 0.0 0.0
19 0.0 0.0 0.0
20 0.0 0.0 0.0
21 0.0 0.0 0.0
22 0.0 0.0 0.0
23 0.0 0.0 0.0
24 0.0 0.0 0.0
25 0.0 0.0 0.0
26 0.0 0.0 0.0
27 0.0 0.0 0.0
28 0.0 0.0 0.0
29 0.0 0.0 0.0
30 0.0 0.0 0.0
31 0.0 0.0 0.0
32 0.0 0.0 0.0
33 0.0 0.0 0.0
34 0.0 0.0 0.0
35 0.0 0.0 0.0
36 0.0 0.0 0.0
37 0.0 0.0 0.0
38 0.0 0.0 0.0
39 0.0 0.0 0.0
40 0.0 0.0 0.0
41 0.0 0.0 0.0
42 0.0 0.0 0.0
43 0.0 0.0 0.0
44 0.0 0.0 0.0
45 0.0 0.0 0.0
46 0.0 0.0 0.0
47 0.0 0.0 0.0
48 0.0 0.0 0.0
49 0.0 0.0 0.0
50 0.0 0.0 0.0
51 0.0 0.0 0.0
52 0.0 0.0 0.0
53 0.0 0.0 0.0
54 0.0 0.0 0.0
55 0.0 0.0 0.0
56 0.0 0.0 0.0
57 0.0 0.0 0.0
58 0.0 0.0 0.0
59 0.0 0.0 0.0
60 0.0 0.0 0.0
61 0.0 0.0 0.0
62 0.0 0.0 0.0
63 0.0 0.0 0.0
64 0.0 0.0 0.0
65 0.0 0.0 0.0
66 0.0 0.0 0.0
67 0.0 0.0 0.0
68 0.0 0.0 0.0
69 0.0 0.0 0.0
70 0.0 0.0 0.0
71 0.0 0.0 0.0
72 0.0 0.0 0.0
73 0.0 0.0 0.0
74 0.0 0.0 0.0
75 0.0 0.0 0.0
76 0.0 0.0 0.0
77 0.0 0.0 0.0
78 0.0 0.0 0.0
79 0.0 0.0 0.0
80 0.0 0.0 0.0
81 0.0 0.0 0.0
82 0.0 0.0 0.0
83 0.0 0.0 0.0
84 0.0 0.0 0.0
85 0.0 0.0 0.0
86 0.0 0.0 0.0
87 0.0 0.0 0.0
88 0.0 0.0 0.0
89 0.0 0.0 0.0
90 0.0 0.0 0.0
91 0.0 0.0 0.0
92 0.0 0.0 0.0

Bonds

1 1 1 2
2 1 2 3
3 1 3 4
4 1 4 5
5 1 5 6
6 1 6 7
7 1 7 8
8 1 8 9
9 1 9 10
10 1 10 11
11 1 2 13
12 1 13 14
13 1 14 15
14 1 15 16
15 1 16 17
16 1 17 18
17 1 18 19
18 1 19 20
19 1 3 21
20 1 21 22
21 1 22 23
22 1 23 24
23 1 24 25
24 1 25 26
25 1 26 27
26 1 27 28
27 1 4 29
28 1 29 30
29 1 30 31
30 1 31 32
31 1 32 33
32 1 33 34
33 1 34 35
34 1 35 36
35 1 5 37
36 1 37 38
37 1 38 39
38 1 39 40
39 1 40 41
40 1 41 42
41 1 42 43
42 1 43 44
43 1 6 45
44 1 45 46
45 1 46 47
46 1 47 48
47 1 48 49
48 1 49 50
49 1 50 51
50 1 51 52
51 1 7 53
52 1 53 54
53 1 54 55
54 1 55 56
55 1 56 57
56 1 57 58
57 1 58 59
58 1 59 60
59 1 8 61
60 1 61 62
61 1 62 63
62 1 63 64
63 1 64 65
64 1 65 66
65 1 66 67
66 1 67 68
67 1 9 69
68 1 69 70
69 1 70 71
70 1 71 72
71 1 72 73
72 1 73 74
73 1 74 75
74 1 75 76
75 1 10 77
76 1 77 78
77 1 78 79
78 1 79 80
79 1 80 81
80 1 81 82
81 1 82 83
82 1 83 84
83 1 11 85
84 1 85 86
85 1 86 87
86 1 87 88
87 1 88 89
88 1 89 90
89 1 90 91
90 1 91 92


