LAMMPS data file from restart file: timestep = 0.

50 atoms
49 bonds
0 angles
0 dihedrals
0 impropers

3 atom types
1 bond types
0 angle types
0 dihedral types
0 improper types
3 extra bond per atom

-120 120 xlo xhi
-120 120 ylo yhi
-120 120 zlo zhi

Masses

1 1
2 1
3 1

Atoms

1 1 1 6.94303 -18.33922 -23.84464 
2 1 2 6.94303 -18.33922 -22.88464 
3 1 2 6.94303 -18.33922 -21.92464 
4 1 2 6.94303 -18.33922 -20.96464 
5 1 2 6.94303 -18.33922 -20.00464 
6 1 2 6.94303 -18.33922 -19.04464 
7 1 2 6.94303 -18.33922 -18.08464 
8 1 2 6.94303 -18.33922 -17.12464 
9 1 2 6.94303 -18.33922 -16.16464 
10 1 2 6.94303 -18.33922 -15.20464 
11 1 2 6.94303 -18.33922 -14.24464 
12 1 2 6.94303 -18.33922 -13.28464 
13 1 2 6.94303 -18.33922 -12.32464 
14 1 2 6.94303 -18.33922 -11.36464 
15 1 2 6.94303 -18.33922 -10.40464 
16 1 2 6.94303 -18.33922 -9.44464 
17 1 2 6.94303 -18.33922 -8.48464 
18 1 2 6.94303 -18.33922 -7.52464 
19 1 2 6.94303 -18.33922 -6.56464 
20 1 2 6.94303 -18.33922 -5.60464 
21 1 2 6.94303 -18.33922 -4.64464 
22 1 2 6.94303 -18.33922 -3.68464 
23 1 2 6.94303 -18.33922 -2.72464 
24 1 2 6.94303 -18.33922 -1.76464 
25 1 2 6.94303 -18.33922 -0.80464 
26 1 2 6.94303 -18.33922 0.15536 
27 1 2 6.94303 -18.33922 1.11536 
28 1 2 6.94303 -18.33922 2.07536 
29 1 2 6.94303 -18.33922 3.03536 
30 1 2 6.94303 -18.33922 3.99536 
31 1 2 6.94303 -18.33922 4.95536 
32 1 2 6.94303 -18.33922 5.91536 
33 1 2 6.94303 -18.33922 6.87536 
34 1 2 6.94303 -18.33922 7.83536 
35 1 2 6.94303 -18.33922 8.79536 
36 1 2 6.94303 -18.33922 9.75536 
37 1 2 6.94303 -18.33922 10.71536 
38 1 2 6.94303 -18.33922 11.67536 
39 1 2 6.94303 -18.33922 12.63536 
40 1 2 6.94303 -18.33922 13.59536 
41 1 2 6.94303 -18.33922 14.55536 
42 1 2 6.94303 -18.33922 15.51536 
43 1 2 6.94303 -18.33922 16.47536 
44 1 2 6.94303 -18.33922 17.43536 
45 1 2 6.94303 -18.33922 18.39536 
46 1 2 6.94303 -18.33922 19.35536 
47 1 2 6.94303 -18.33922 20.31536 
48 1 2 6.94303 -18.33922 21.27536 
49 1 2 6.94303 -18.33922 22.23536 
50 1 1 6.94303 -18.33922 23.19536 

Velocities

1 -0.426956 -0.558782 -1.34291 
2 0.0959861 -1.57742 0.228217 
3 -0.303623 -1.10371 -0.982396 
4 -1.30674 -0.438511 -0.862883 
5 -0.637436 0.146957 -1.43162 
6 0.0515779 1.83084 0.0333044 
7 1.61858 0.229887 0.425753 
8 0.605606 0.804224 -1.23182 
9 0.879114 -0.408825 -1.12996 
10 -1.65097 -0.549315 0.140937 
11 0.566799 -1.19784 1.06501 
12 -1.49082 1.08684 0.0454737 
13 1.02978 1.38385 -0.184377 
14 1.60778 0.426202 0.0691844 
15 0.161581 1.62354 0.992839 
16 0.559088 -1.41221 0.593002 
17 -0.355725 -0.23286 -1.46424 
18 1.54557 0.643867 -0.0182236 
19 0.226483 -1.55924 0.153892 
20 0.378984 0.18203 1.84072 
21 1.2243 0.617544 1.1927 
22 -0.455289 -0.506894 -1.35848 
23 -0.612777 0.586763 1.75127 
24 1.5646 -0.306974 -0.0511176 
25 -0.511361 -0.0987448 -1.45444 
26 0.905944 -0.903763 -0.765423 
27 -0.545755 -1.49595 -0.0985335 
28 0.977496 -0.569063 -0.970337 
29 -0.800151 0.675132 1.64359 
30 0.171211 1.46789 -0.852331 
31 0.961159 0.572283 1.47926 
32 -0.390376 0.615088 1.80235 
33 -1.10511 -0.889006 -0.732076 
34 1.08802 -1.1143 -0.0123864 
35 0.266402 -0.222049 -1.45454 
36 -0.774123 0.484178 -1.33673 
37 0.265913 0.843017 1.70896 
38 0.48813 1.20035 -1.02443 
39 0.730701 0.933564 1.46902 
40 -0.689533 -1.35596 0.790159 
41 -1.24568 1.06361 -0.646779 
42 0.503498 1.1661 1.42391 
43 0.0452645 -1.2779 -0.785319 
44 0.838661 -1.09043 -0.597383 
45 -1.36468 0.72701 -0.771582 
46 -0.0050621 1.33485 1.40453 
47 -1.48086 -0.281558 1.08302 
48 -1.23288 -0.935303 -0.49853 
49 -0.80275 -1.14057 -0.70763 
50 -1.16957 0.581566 1.42937 

Bonds

1 1 1 2
2 1 2 3
3 1 3 4
4 1 4 5
5 1 5 6
6 1 6 7
7 1 7 8
8 1 8 9
9 1 9 10
10 1 10 11
11 1 11 12
12 1 12 13
13 1 13 14
14 1 14 15
15 1 15 16
16 1 16 17
17 1 17 18
18 1 18 19
19 1 19 20
20 1 20 21
21 1 21 22
22 1 22 23
23 1 23 24
24 1 24 25
25 1 25 26
26 1 26 27
27 1 27 28
28 1 28 29
29 1 29 30
30 1 30 31
31 1 31 32
32 1 32 33
33 1 33 34
34 1 34 35
35 1 35 36
36 1 36 37
37 1 37 38
38 1 38 39
39 1 39 40
40 1 40 41
41 1 41 42
42 1 42 43
43 1 43 44
44 1 44 45
45 1 45 46
46 1 46 47
47 1 47 48
48 1 48 49
49 1 49 50
