LAMMPS data file

51 atoms
49 bonds
0 angles
0 dihedrals
0 impropers

3 atom types
1 bond types
0 angle types
0 dihedral types
0 improper types

-61 61 xlo xhi
-61 61 ylo yhi
-61 61 zlo zhi

Masses

1 1
2 1
3 1

Atoms

1 1 0.05412 0.76946 -29.65267 1 1
2 2 0.05412 0.76946 -28.15267 0 1
3 2 0.05412 0.76946 -26.65267 0 1
4 2 0.05412 0.76946 -25.15267 0 1
5 2 0.05412 0.76946 -23.65267 0 1
6 2 0.05412 0.76946 -22.15267 0 1
7 2 0.05412 0.76946 -20.65267 0 1
8 2 0.05412 0.76946 -19.15267 0 1
9 2 0.05412 0.76946 -17.65267 0 1
10 2 0.05412 0.76946 -16.15267 0 1
11 2 0.05412 0.76946 -14.65267 0 1
12 2 0.05412 0.76946 -13.15267 0 1
13 2 0.05412 0.76946 -11.65267 0 1
14 2 0.05412 0.76946 -10.15267 0 1
15 2 0.05412 0.76946 -8.65267 0 1
16 2 0.05412 0.76946 -7.1526700000000005 0 1
17 2 0.05412 0.76946 -5.6526700000000005 0 1
18 2 0.05412 0.76946 -4.1526700000000005 0 1
19 2 0.05412 0.76946 -2.6526700000000005 0 1
20 2 0.05412 0.76946 -1.1526700000000005 0 1
21 2 0.05412 0.76946 0.3473299999999995 0 1
22 2 0.05412 0.76946 1.8473299999999995 0 1
23 2 0.05412 0.76946 3.3473299999999995 0 1
24 2 0.05412 0.76946 4.8473299999999995 0 1
25 2 0.05412 0.76946 6.3473299999999995 0 1
26 2 0.05412 0.76946 7.8473299999999995 0 1
27 2 0.05412 0.76946 9.34733 0 1
28 2 0.05412 0.76946 10.84733 0 1
29 2 0.05412 0.76946 12.34733 0 1
30 2 0.05412 0.76946 13.84733 0 1
31 2 0.05412 0.76946 15.34733 0 1
32 2 0.05412 0.76946 16.84733 0 1
33 2 0.05412 0.76946 18.34733 0 1
34 2 0.05412 0.76946 19.84733 0 1
35 2 0.05412 0.76946 21.34733 0 1
36 2 0.05412 0.76946 22.84733 0 1
37 2 0.05412 0.76946 24.34733 0 1
38 2 0.05412 0.76946 25.84733 0 1
39 2 0.05412 0.76946 27.34733 0 1
40 2 0.05412 0.76946 28.84733 0 1
41 2 0.05412 0.76946 30.34733 0 1
42 2 0.05412 0.76946 31.84733 0 1
43 2 0.05412 0.76946 33.34733 0 1
44 2 0.05412 0.76946 34.84733 0 1
45 2 0.05412 0.76946 36.34733 0 1
46 2 0.05412 0.76946 37.84733 0 1
47 2 0.05412 0.76946 39.34733 0 1
48 2 0.05412 0.76946 40.84733 0 1
49 2 0.05412 0.76946 42.34733 0 1
50 2 0.05412 0.76946 43.84733 0 1
51 3 0.05412 0.76946 50.34733 -1 1

Velocities

1 0.0 0.0 0.0
2 0.0 0.0 0.0
3 0.0 0.0 0.0
4 0.0 0.0 0.0
5 0.0 0.0 0.0
6 0.0 0.0 0.0
7 0.0 0.0 0.0
8 0.0 0.0 0.0
9 0.0 0.0 0.0
10 0.0 0.0 0.0
11 0.0 0.0 0.0
12 0.0 0.0 0.0
13 0.0 0.0 0.0
14 0.0 0.0 0.0
15 0.0 0.0 0.0
16 0.0 0.0 0.0
17 0.0 0.0 0.0
18 0.0 0.0 0.0
19 0.0 0.0 0.0
20 0.0 0.0 0.0
21 0.0 0.0 0.0
22 0.0 0.0 0.0
23 0.0 0.0 0.0
24 0.0 0.0 0.0
25 0.0 0.0 0.0
26 0.0 0.0 0.0
27 0.0 0.0 0.0
28 0.0 0.0 0.0
29 0.0 0.0 0.0
30 0.0 0.0 0.0
31 0.0 0.0 0.0
32 0.0 0.0 0.0
33 0.0 0.0 0.0
34 0.0 0.0 0.0
35 0.0 0.0 0.0
36 0.0 0.0 0.0
37 0.0 0.0 0.0
38 0.0 0.0 0.0
39 0.0 0.0 0.0
40 0.0 0.0 0.0
41 0.0 0.0 0.0
42 0.0 0.0 0.0
43 0.0 0.0 0.0
44 0.0 0.0 0.0
45 0.0 0.0 0.0
46 0.0 0.0 0.0
47 0.0 0.0 0.0
48 0.0 0.0 0.0
49 0.0 0.0 0.0
50 0.0 0.0 0.0
51 0.0 0.0 0.0

Bonds

1 1 1 2
2 1 2 3
3 1 3 4
4 1 4 5
5 1 5 6
6 1 6 7
7 1 7 8
8 1 8 9
9 1 9 10
10 1 10 11
11 1 11 12
12 1 12 13
13 1 13 14
14 1 14 15
15 1 15 16
16 1 16 17
17 1 17 18
18 1 18 19
19 1 19 20
20 1 20 21
21 1 21 22
22 1 22 23
23 1 23 24
24 1 24 25
25 1 25 26
26 1 26 27
27 1 27 28
28 1 28 29
29 1 29 30
30 1 30 31
31 1 31 32
32 1 32 33
33 1 33 34
34 1 34 35
35 1 35 36
36 1 36 37
37 1 37 38
38 1 38 39
39 1 39 40
40 1 40 41
41 1 41 42
42 1 42 43
43 1 43 44
44 1 44 45
45 1 45 46
46 1 46 47
47 1 47 48
48 1 48 49
49 1 49 50

