# LAMMPS data file

6 atoms
4 bonds
0 angles
0 dihedrals
0 impropers

3 atom types
1 bond types
0 angle types
0 dihedral types
0 improper types

-1 2 xlo xhi
-1 2 ylo yhi
-7 5 zlo zhi

Masses

1 1
2 1
3 1

Atoms

1 1 0.01533 2.21548 -6.3812 9 1
2 2 0.01533 1.35175 -5.19238 0 1
3 2 0.01533 -0.04579 -5.64647 0 1
4 2 0.01533 -0.04579 -7.11593 0 1
5 2 0.01533 1.35175 -7.57002 0 1
6 3 0.54526 0.12772 -5.15766 -9 1
