# LAMMPS data file

52 atoms
50 bonds
0 angles
0 dihedrals
0 impropers

3 atom types
1 bond types
0 angle types
0 dihedral types
0 improper types

-1 2 xlo xhi
-5 2 ylo yhi
-13 5 zlo zhi

Masses

1 1
2 1
3 1

Atoms

1 1 0.47146 -4.31905 -12.2999 9 1
2 2 0.47146 -4.31905 -11.2999 0 1
3 2 0.47146 -4.31905 -10.2999 0 1
4 2 0.47146 -4.31905 -9.2999 0 1
5 2 0.47146 -4.31905 -8.2999 0 1
6 2 0.47146 -4.31905 -7.2999 0 1
7 2 0.47146 -4.31905 -6.2999 0 1
8 2 0.47146 -4.31905 -5.2999 0 1
9 2 0.47146 -4.31905 -4.2999 0 1
10 2 0.47146 -4.31905 -3.2999 0 1
11 2 0.47146 -4.31905 -2.2999 0 1
12 3 0.47146 -4.31905 -1.2999 -9 1
13 2 0.47146 -3.31905 -11.2999 0 1
14 2 0.47146 -2.31905 -11.2999 0 1
15 2 0.47146 -1.31905 -11.2999 0 1
16 2 0.47146 -0.31905 -11.2999 0 1
17 2 0.47146 -3.31905 -10.2999 0 1
18 2 0.47146 -2.31905 -10.2999 0 1
19 2 0.47146 -1.31905 -10.2999 0 1
20 2 0.47146 -0.31905 -10.2999 0 1
21 2 0.47146 -3.31905 -9.2999 0 1
22 2 0.47146 -2.31905 -9.2999 0 1
23 2 0.47146 -1.31905 -9.2999 0 1
24 2 0.47146 -0.31905 -9.2999 0 1
25 2 0.47146 -3.31905 -8.2999 0 1
26 2 0.47146 -2.31905 -8.2999 0 1
27 2 0.47146 -1.31905 -8.2999 0 1
28 2 0.47146 -0.31905 -8.2999 0 1
29 2 0.47146 -3.31905 -7.2999 0 1
30 2 0.47146 -2.31905 -7.2999 0 1
31 2 0.47146 -1.31905 -7.2999 0 1
32 2 0.47146 -0.31905 -7.2999 0 1
33 2 0.47146 -3.31905 -6.2999 0 1
34 2 0.47146 -2.31905 -6.2999 0 1
35 2 0.47146 -1.31905 -6.2999 0 1
36 2 0.47146 -0.31905 -6.2999 0 1
37 2 0.47146 -3.31905 -5.2999 0 1
38 2 0.47146 -2.31905 -5.2999 0 1
39 2 0.47146 -1.31905 -5.2999 0 1
40 2 0.47146 -0.31905 -5.2999 0 1
41 2 0.47146 -3.31905 -4.2999 0 1
42 2 0.47146 -2.31905 -4.2999 0 1
43 2 0.47146 -1.31905 -4.2999 0 1
44 2 0.47146 -0.31905 -4.2999 0 1
45 2 0.47146 -3.31905 -3.2999 0 1
46 2 0.47146 -2.31905 -3.2999 0 1
47 2 0.47146 -1.31905 -3.2999 0 1
48 2 0.47146 -0.31905 -3.2999 0 1
49 2 0.47146 -3.31905 -2.2999 0 1
50 2 0.47146 -2.31905 -2.2999 0 1
51 2 0.47146 -1.31905 -2.2999 0 1
52 2 0.47146 -0.31905 -2.2999 0 1


Velocities

1 0.0 0.0 0.0
2 0.0 0.0 0.0
3 0.0 0.0 0.0
4 0.0 0.0 0.0
5 0.0 0.0 0.0
6 0.0 0.0 0.0
7 0.0 0.0 0.0
8 0.0 0.0 0.0
9 0.0 0.0 0.0
10 0.0 0.0 0.0
11 0.0 0.0 0.0
12 0.0 0.0 0.0
13 0.0 0.0 0.0
14 0.0 0.0 0.0
15 0.0 0.0 0.0
16 0.0 0.0 0.0
17 0.0 0.0 0.0
18 0.0 0.0 0.0
19 0.0 0.0 0.0
20 0.0 0.0 0.0
21 0.0 0.0 0.0
22 0.0 0.0 0.0
23 0.0 0.0 0.0
24 0.0 0.0 0.0
25 0.0 0.0 0.0
26 0.0 0.0 0.0
27 0.0 0.0 0.0
28 0.0 0.0 0.0
29 0.0 0.0 0.0
30 0.0 0.0 0.0
31 0.0 0.0 0.0
32 0.0 0.0 0.0
33 0.0 0.0 0.0
34 0.0 0.0 0.0
35 0.0 0.0 0.0
36 0.0 0.0 0.0
37 0.0 0.0 0.0
38 0.0 0.0 0.0
39 0.0 0.0 0.0
40 0.0 0.0 0.0
41 0.0 0.0 0.0
42 0.0 0.0 0.0
43 0.0 0.0 0.0
44 0.0 0.0 0.0
45 0.0 0.0 0.0
46 0.0 0.0 0.0
47 0.0 0.0 0.0
48 0.0 0.0 0.0
49 0.0 0.0 0.0
50 0.0 0.0 0.0
51 0.0 0.0 0.0
52 0.0 0.0 0.0

Bonds

1 1 1 2
2 1 2 3
3 1 3 4
4 1 4 5
5 1 5 6
6 1 6 7
7 1 7 8
8 1 8 9
9 1 9 10
10 1 10 11
11 1 2 13
12 1 13 14
13 1 14 15
14 1 15 16
15 1 3 17
16 1 17 18
17 1 18 19
18 1 19 20
19 1 4 21
20 1 21 22
21 1 22 23
22 1 23 24
23 1 5 25
24 1 25 26
25 1 26 27
26 1 27 28
27 1 6 29
28 1 29 30
29 1 30 31
30 1 31 32
31 1 7 33
32 1 33 34
33 1 34 35
34 1 35 36
35 1 8 37
36 1 37 38
37 1 38 39
38 1 39 40
39 1 9 41
40 1 41 42
41 1 42 43
42 1 43 44
43 1 10 45
44 1 45 46
45 1 46 47
46 1 47 48
47 1 11 49
48 1 49 50
49 1 50 51
50 1 51 52


