# LAMMPS data file

22 atoms
20 bonds
0 angles
0 dihedrals
0 impropers

3 atom types
1 bond types
0 angle types
0 dihedral types
0 improper types

-1 2 xlo xhi
-1 2 ylo yhi
-23 5 zlo zhi

Masses

1 1
2 1
3 1

Atoms

1 1 0.62528 5.57542 -22.24034 9 1
2 2 0.62528 5.34218 -20.69288 0 1
3 2 0.62528 4.66318 -19.28291 0 1
4 2 0.62528 3.59874 -18.13573 0 1
5 2 0.62528 2.24346 -17.35326 0 1
6 2 0.62528 0.71776 -17.00502 0 1
7 2 0.62528 -0.84281 -17.12197 0 1
8 2 0.62528 -2.29958 -17.69371 0 1
9 2 0.62528 -3.5231 -18.66944 0 1
10 2 0.62528 -4.40466 -19.96245 0 1
11 2 0.62528 -4.86594 -21.45787 0 1
12 2 0.62528 -4.86594 -23.02281 0 1
13 2 0.62528 -4.40466 -24.51823 0 1
14 2 0.62528 -3.5231 -25.81125 0 1
15 2 0.62528 -2.29958 -26.78698 0 1
16 2 0.62528 -0.84281 -27.35871 0 1
17 2 0.62528 0.71776 -27.47566 0 1
18 2 0.62528 2.24346 -27.12743 0 1
19 2 0.62528 3.59874 -26.34496 0 1
20 2 0.62528 4.66318 -25.19777 0 1
21 2 0.62528 5.34218 -23.78781 0 1
22 3 0.29131 0.98389 -21.42833 -9 1
