# LAMMPS data file

32 atoms
30 bonds
0 angles
0 dihedrals
0 impropers

3 atom types
1 bond types
0 angle types
0 dihedral types
0 improper types

-1 2 xlo xhi
-3 2 ylo yhi
-13 5 zlo zhi

Masses

1 1
2 1
3 1

Atoms

1 1 0.10814 -2.36111 -12.22433 9 1
2 2 0.10814 -2.36111 -11.22433 0 1
3 2 0.10814 -2.36111 -10.22433 0 1
4 2 0.10814 -2.36111 -9.22433 0 1
5 2 0.10814 -2.36111 -8.22433 0 1
6 2 0.10814 -2.36111 -7.22433 0 1
7 2 0.10814 -2.36111 -6.22433 0 1
8 2 0.10814 -2.36111 -5.22433 0 1
9 2 0.10814 -2.36111 -4.22433 0 1
10 2 0.10814 -2.36111 -3.22433 0 1
11 2 0.10814 -2.36111 -2.22433 0 1
12 3 0.10814 -2.36111 -1.22433 -9 1
13 2 0.10814 -1.36111 -11.22433 0 1
14 2 0.10814 -0.36111 -11.22433 0 1
15 2 0.10814 -1.36111 -10.22433 0 1
16 2 0.10814 -0.36111 -10.22433 0 1
17 2 0.10814 -1.36111 -9.22433 0 1
18 2 0.10814 -0.36111 -9.22433 0 1
19 2 0.10814 -1.36111 -8.22433 0 1
20 2 0.10814 -0.36111 -8.22433 0 1
21 2 0.10814 -1.36111 -7.22433 0 1
22 2 0.10814 -0.36111 -7.22433 0 1
23 2 0.10814 -1.36111 -6.22433 0 1
24 2 0.10814 -0.36111 -6.22433 0 1
25 2 0.10814 -1.36111 -5.22433 0 1
26 2 0.10814 -0.36111 -5.22433 0 1
27 2 0.10814 -1.36111 -4.22433 0 1
28 2 0.10814 -0.36111 -4.22433 0 1
29 2 0.10814 -1.36111 -3.22433 0 1
30 2 0.10814 -0.36111 -3.22433 0 1
31 2 0.10814 -1.36111 -2.22433 0 1
32 2 0.10814 -0.36111 -2.22433 0 1


Velocities

1 0.0 0.0 0.0
2 0.0 0.0 0.0
3 0.0 0.0 0.0
4 0.0 0.0 0.0
5 0.0 0.0 0.0
6 0.0 0.0 0.0
7 0.0 0.0 0.0
8 0.0 0.0 0.0
9 0.0 0.0 0.0
10 0.0 0.0 0.0
11 0.0 0.0 0.0
12 0.0 0.0 0.0
13 0.0 0.0 0.0
14 0.0 0.0 0.0
15 0.0 0.0 0.0
16 0.0 0.0 0.0
17 0.0 0.0 0.0
18 0.0 0.0 0.0
19 0.0 0.0 0.0
20 0.0 0.0 0.0
21 0.0 0.0 0.0
22 0.0 0.0 0.0
23 0.0 0.0 0.0
24 0.0 0.0 0.0
25 0.0 0.0 0.0
26 0.0 0.0 0.0
27 0.0 0.0 0.0
28 0.0 0.0 0.0
29 0.0 0.0 0.0
30 0.0 0.0 0.0
31 0.0 0.0 0.0
32 0.0 0.0 0.0

Bonds

1 1 1 2
2 1 2 3
3 1 3 4
4 1 4 5
5 1 5 6
6 1 6 7
7 1 7 8
8 1 8 9
9 1 9 10
10 1 10 11
11 1 2 13
12 1 13 14
13 1 3 15
14 1 15 16
15 1 4 17
16 1 17 18
17 1 5 19
18 1 19 20
19 1 6 21
20 1 21 22
21 1 7 23
22 1 23 24
23 1 8 25
24 1 25 26
25 1 9 27
26 1 27 28
27 1 10 29
28 1 29 30
29 1 11 31
30 1 31 32


